<?xml version="1.0" encoding="UTF-8"?>

<!-- generated on 2024-07-25 07:22:14 by Eclipse SUMO sumo Version 1.20.0
<configuration xmlns:xsi="http://www.w3.org/2001/XMLSchema-instance" xsi:noNamespaceSchemaLocation="http://sumo.dlr.de/xsd/sumoConfiguration.xsd">

    <input>
        <net-file value="sumo_rl/nets/two_intersections/two_intersections.net.xml"/>
        <route-files value="sumo_rl/nets/two_intersections/two_intersections.flow.rou.xml"/>
    </input>

    <output>
        <output-prefix value="TIME"/>
        <tripinfo-output value="sumo_rl/nets/two_intersections/tripinfo.xml"/>
    </output>

    <time>
        <begin value="0"/>
        <end value="100000"/>
    </time>

    <traci_server>
        <remote-port value="56651"/>
    </traci_server>

</configuration>
-->

<tripinfos xmlns:xsi="http://www.w3.org/2001/XMLSchema-instance" xsi:noNamespaceSchemaLocation="http://sumo.dlr.de/xsd/tripinfo_file.xsd">
    <tripinfo id="flow10.0" depart="0.00" departLane="-E0_0" departPos="5.10" departSpeed="0.00" departDelay="0.00" arrival="26.00" arrivalLane="-E2_0" arrivalPos="86.40" arrivalSpeed="13.35" duration="26.00" routeLength="176.73" waitingTime="0.00" waitingCount="0" stopTime="0.00" timeLoss="11.51" rerouteNo="0" devices="tripinfo_flow10.0" vType="type1" speedFactor="1.06" vaporized=""/>
    <tripinfo id="flow29.0" depart="4.00" departLane="E4_0" departPos="5.10" departSpeed="0.00" departDelay="0.00" arrival="61.00" arrivalLane="-E2_0" arrivalPos="86.40" arrivalSpeed="12.96" duration="57.00" routeLength="276.73" waitingTime="14.00" waitingCount="1" stopTime="0.00" timeLoss="34.62" rerouteNo="0" devices="tripinfo_flow29.0" vType="type1" speedFactor="0.94" vaporized=""/>
    <tripinfo id="flow14.0" depart="26.00" departLane="-E0_0" departPos="5.10" departSpeed="0.00" departDelay="0.00" arrival="63.00" arrivalLane="E6_0" arrivalPos="86.40" arrivalSpeed="12.89" duration="37.00" routeLength="274.04" waitingTime="0.00" waitingCount="0" stopTime="0.00" timeLoss="14.40" rerouteNo="0" devices="tripinfo_flow14.0" vType="type1" speedFactor="0.94" vaporized=""/>
    <tripinfo id="flow24.0" depart="23.00" departLane="-E5_0" departPos="5.10" departSpeed="0.00" departDelay="0.00" arrival="70.00" arrivalLane="-E2_0" arrivalPos="86.40" arrivalSpeed="11.51" duration="47.00" routeLength="294.90" waitingTime="5.00" waitingCount="1" stopTime="0.00" timeLoss="21.42" rerouteNo="0" devices="tripinfo_flow24.0" vType="type1" speedFactor="0.83" vaporized=""/>
    <tripinfo id="flow30.0" depart="26.00" departLane="E2_0" departPos="5.10" departSpeed="0.00" departDelay="0.00" arrival="70.00" arrivalLane="E5_1" arrivalPos="86.40" arrivalSpeed="13.54" duration="44.00" routeLength="294.90" waitingTime="2.00" waitingCount="1" stopTime="0.00" timeLoss="22.41" rerouteNo="0" devices="tripinfo_flow30.0" vType="type2" speedFactor="1.09" vaporized=""/>
    <tripinfo id="flow22.0" depart="36.00" departLane="-E5_0" departPos="5.10" departSpeed="0.00" departDelay="7.00" arrival="74.00" arrivalLane="E0_0" arrivalPos="86.40" arrivalSpeed="13.36" duration="38.00" routeLength="276.73" waitingTime="0.00" waitingCount="0" stopTime="0.00" timeLoss="16.93" rerouteNo="0" devices="tripinfo_flow22.0" vType="type1" speedFactor="1.03" vaporized=""/>
    <tripinfo id="flow22.1" depart="42.00" departLane="-E5_0" departPos="5.10" departSpeed="0.00" departDelay="0.00" arrival="78.00" arrivalLane="E0_0" arrivalPos="86.40" arrivalSpeed="11.99" duration="36.00" routeLength="276.73" waitingTime="0.00" waitingCount="0" stopTime="0.00" timeLoss="11.97" rerouteNo="0" devices="tripinfo_flow22.1" vType="type1" speedFactor="0.88" vaporized=""/>
    <tripinfo id="flow24.1" depart="47.00" departLane="-E5_0" departPos="5.10" departSpeed="0.00" departDelay="2.00" arrival="81.00" arrivalLane="-E2_0" arrivalPos="86.40" arrivalSpeed="12.95" duration="34.00" routeLength="294.90" waitingTime="0.00" waitingCount="0" stopTime="0.00" timeLoss="10.68" rerouteNo="0" devices="tripinfo_flow24.1" vType="type1" speedFactor="0.94" vaporized=""/>
    <tripinfo id="flow23.0" depart="6.00" departLane="-E5_0" departPos="5.10" departSpeed="0.00" departDelay="0.00" arrival="97.00" arrivalLane="-E1_2" arrivalPos="86.40" arrivalSpeed="13.56" duration="91.00" routeLength="292.21" waitingTime="40.00" waitingCount="2" stopTime="0.00" timeLoss="68.77" rerouteNo="0" devices="tripinfo_flow23.0" vType="type1" speedFactor="1.01" vaporized=""/>
    <tripinfo id="flow1.0" depart="10.00" departLane="E2_0" departPos="5.10" departSpeed="0.00" departDelay="0.00" arrival="97.00" arrivalLane="E0_2" arrivalPos="86.40" arrivalSpeed="12.36" duration="87.00" routeLength="192.21" waitingTime="53.00" waitingCount="1" stopTime="0.00" timeLoss="72.74" rerouteNo="0" devices="tripinfo_flow1.0" vType="type1" speedFactor="1.08" vaporized=""/>
    <tripinfo id="flow20.0" depart="11.00" departLane="-E5_0" departPos="5.10" departSpeed="0.00" departDelay="0.00" arrival="97.00" arrivalLane="E6_2" arrivalPos="86.40" arrivalSpeed="13.21" duration="86.00" routeLength="192.21" waitingTime="53.00" waitingCount="1" stopTime="0.00" timeLoss="70.96" rerouteNo="0" devices="tripinfo_flow20.0" vType="type1" speedFactor="1.03" vaporized=""/>
    <tripinfo id="flow23.1" depart="28.00" departLane="-E5_0" departPos="5.10" departSpeed="0.00" departDelay="3.00" arrival="99.00" arrivalLane="-E1_2" arrivalPos="86.40" arrivalSpeed="13.80" duration="71.00" routeLength="292.21" waitingTime="17.00" waitingCount="1" stopTime="0.00" timeLoss="48.65" rerouteNo="0" devices="tripinfo_flow23.1" vType="type1" speedFactor="1.05" vaporized=""/>
    <tripinfo id="flow15.0" depart="35.00" departLane="-E6_0" departPos="5.10" departSpeed="0.00" departDelay="1.00" arrival="106.00" arrivalLane="-E4_0" arrivalPos="86.40" arrivalSpeed="12.88" duration="71.00" routeLength="194.90" waitingTime="38.00" waitingCount="1" stopTime="0.00" timeLoss="56.78" rerouteNo="0" devices="tripinfo_flow15.0" vType="type1" speedFactor="0.99" vaporized=""/>
    <tripinfo id="flow15.1" depart="56.00" departLane="-E6_0" departPos="5.10" departSpeed="0.00" departDelay="0.00" arrival="107.00" arrivalLane="-E4_1" arrivalPos="86.40" arrivalSpeed="13.51" duration="51.00" routeLength="194.90" waitingTime="17.00" waitingCount="1" stopTime="0.00" timeLoss="36.04" rerouteNo="0" devices="tripinfo_flow15.1" vType="type1" speedFactor="1.16" vaporized=""/>
    <tripinfo id="flow16.0" depart="63.00" departLane="-E6_0" departPos="5.10" departSpeed="0.00" departDelay="0.00" arrival="107.00" arrivalLane="E5_0" arrivalPos="86.40" arrivalSpeed="11.88" duration="44.00" routeLength="176.73" waitingTime="9.00" waitingCount="1" stopTime="0.00" timeLoss="29.76" rerouteNo="0" devices="tripinfo_flow16.0" vType="type1" speedFactor="0.97" vaporized=""/>
    <tripinfo id="flow5.0" depart="67.00" departLane="E1_0" departPos="5.10" departSpeed="0.00" departDelay="0.00" arrival="107.00" arrivalLane="E0_1" arrivalPos="86.40" arrivalSpeed="12.06" duration="40.00" routeLength="194.90" waitingTime="6.00" waitingCount="1" stopTime="0.00" timeLoss="23.92" rerouteNo="0" devices="tripinfo_flow5.0" vType="type1" speedFactor="0.89" vaporized=""/>
    <tripinfo id="flow16.1" depart="88.00" departLane="-E6_0" departPos="5.10" departSpeed="0.00" departDelay="0.00" arrival="113.00" arrivalLane="E5_0" arrivalPos="86.40" arrivalSpeed="13.23" duration="25.00" routeLength="176.73" waitingTime="0.00" waitingCount="0" stopTime="0.00" timeLoss="11.69" rerouteNo="0" devices="tripinfo_flow16.1" vType="type1" speedFactor="1.13" vaporized=""/>
    <tripinfo id="flow15.2" depart="97.00" departLane="-E6_0" departPos="5.10" departSpeed="0.00" departDelay="0.00" arrival="120.00" arrivalLane="-E4_1" arrivalPos="86.40" arrivalSpeed="13.45" duration="23.00" routeLength="194.90" waitingTime="0.00" waitingCount="0" stopTime="0.00" timeLoss="8.88" rerouteNo="0" devices="tripinfo_flow15.2" vType="type1" speedFactor="1.01" vaporized=""/>
    <tripinfo id="flow5.1" depart="103.00" departLane="E1_0" departPos="5.10" departSpeed="0.00" departDelay="0.00" arrival="127.00" arrivalLane="E0_0" arrivalPos="86.40" arrivalSpeed="13.37" duration="24.00" routeLength="194.90" waitingTime="0.00" waitingCount="0" stopTime="0.00" timeLoss="9.31" rerouteNo="0" devices="tripinfo_flow5.1" vType="type1" speedFactor="0.99" vaporized=""/>
    <tripinfo id="flow27.0" depart="25.00" departLane="E4_0" departPos="5.10" departSpeed="0.00" departDelay="0.00" arrival="149.00" arrivalLane="E0_0" arrivalPos="86.40" arrivalSpeed="12.21" duration="124.00" routeLength="258.56" waitingTime="77.00" waitingCount="2" stopTime="0.00" timeLoss="101.33" rerouteNo="0" devices="tripinfo_flow27.0" vType="type1" speedFactor="0.89" vaporized=""/>
    <tripinfo id="flow9.0" depart="38.00" departLane="E1_0" departPos="5.10" departSpeed="0.00" departDelay="0.00" arrival="150.00" arrivalLane="E6_0" arrivalPos="86.40" arrivalSpeed="12.54" duration="112.00" routeLength="258.56" waitingTime="65.00" waitingCount="2" stopTime="0.00" timeLoss="89.94" rerouteNo="0" devices="tripinfo_flow9.0" vType="type1" speedFactor="0.93" vaporized=""/>
    <tripinfo id="flow21.0" depart="69.00" departLane="-E5_0" departPos="5.10" departSpeed="0.00" departDelay="0.00" arrival="150.00" arrivalLane="-E4_0" arrivalPos="86.40" arrivalSpeed="11.13" duration="81.00" routeLength="176.73" waitingTime="49.00" waitingCount="1" stopTime="0.00" timeLoss="64.32" rerouteNo="0" devices="tripinfo_flow21.0" vType="type1" speedFactor="0.83" vaporized=""/>
    <tripinfo id="flow29.1" depart="53.00" departLane="E4_0" departPos="5.10" departSpeed="0.00" departDelay="0.00" arrival="151.00" arrivalLane="-E2_1" arrivalPos="86.40" arrivalSpeed="12.55" duration="98.00" routeLength="276.73" waitingTime="44.00" waitingCount="2" stopTime="0.00" timeLoss="75.86" rerouteNo="0" devices="tripinfo_flow29.1" vType="type1" speedFactor="0.94" vaporized=""/>
    <tripinfo id="flow9.1" depart="93.00" departLane="E1_0" departPos="5.10" departSpeed="0.00" departDelay="0.00" arrival="152.00" arrivalLane="E6_0" arrivalPos="86.40" arrivalSpeed="12.22" duration="59.00" routeLength="258.56" waitingTime="15.00" waitingCount="1" stopTime="0.00" timeLoss="39.26" rerouteNo="0" devices="tripinfo_flow9.1" vType="type1" speedFactor="1.18" vaporized=""/>
    <tripinfo id="flow29.2" depart="104.00" departLane="E4_0" departPos="5.10" departSpeed="0.00" departDelay="0.00" arrival="154.00" arrivalLane="-E2_0" arrivalPos="86.40" arrivalSpeed="13.83" duration="50.00" routeLength="276.73" waitingTime="1.00" waitingCount="1" stopTime="0.00" timeLoss="28.63" rerouteNo="0" devices="tripinfo_flow29.2" vType="type1" speedFactor="1.02" vaporized=""/>
    <tripinfo id="flow17.0" depart="31.00" departLane="-E6_0" departPos="5.10" departSpeed="0.00" departDelay="0.00" arrival="155.00" arrivalLane="E0_0" arrivalPos="86.40" arrivalSpeed="12.77" duration="124.00" routeLength="274.04" waitingTime="79.00" waitingCount="1" stopTime="0.00" timeLoss="102.49" rerouteNo="0" devices="tripinfo_flow17.0" vType="type1" speedFactor="1.05" vaporized=""/>
    <tripinfo id="flow14.1" depart="86.00" departLane="-E0_0" departPos="5.10" departSpeed="0.00" departDelay="0.00" arrival="155.00" arrivalLane="E6_0" arrivalPos="86.40" arrivalSpeed="12.80" duration="69.00" routeLength="274.04" waitingTime="24.00" waitingCount="1" stopTime="0.00" timeLoss="46.07" rerouteNo="0" devices="tripinfo_flow14.1" vType="type1" speedFactor="0.95" vaporized=""/>
    <tripinfo id="flow17.1" depart="33.00" departLane="-E6_0" departPos="5.10" departSpeed="0.00" departDelay="0.00" arrival="157.00" arrivalLane="E0_0" arrivalPos="86.40" arrivalSpeed="12.82" duration="124.00" routeLength="274.04" waitingTime="76.00" waitingCount="1" stopTime="0.00" timeLoss="103.03" rerouteNo="0" devices="tripinfo_flow17.1" vType="type1" speedFactor="1.12" vaporized=""/>
    <tripinfo id="flow14.2" depart="113.00" departLane="-E0_0" departPos="5.10" departSpeed="0.00" departDelay="0.00" arrival="157.00" arrivalLane="E6_0" arrivalPos="86.40" arrivalSpeed="13.12" duration="44.00" routeLength="274.04" waitingTime="0.00" waitingCount="0" stopTime="0.00" timeLoss="23.07" rerouteNo="0" devices="tripinfo_flow14.2" vType="type1" speedFactor="1.10" vaporized=""/>
    <tripinfo id="flow3.0" depart="100.00" departLane="E2_0" departPos="5.10" departSpeed="0.00" departDelay="0.00" arrival="159.00" arrivalLane="E5_1" arrivalPos="86.40" arrivalSpeed="13.69" duration="59.00" routeLength="294.90" waitingTime="18.00" waitingCount="1" stopTime="0.00" timeLoss="37.65" rerouteNo="0" devices="tripinfo_flow3.0" vType="type1" speedFactor="1.17" vaporized=""/>
    <tripinfo id="flow3.1" depart="108.00" departLane="E2_0" departPos="5.10" departSpeed="0.00" departDelay="0.00" arrival="160.00" arrivalLane="E5_0" arrivalPos="86.40" arrivalSpeed="13.73" duration="52.00" routeLength="294.90" waitingTime="9.00" waitingCount="1" stopTime="0.00" timeLoss="30.39" rerouteNo="0" devices="tripinfo_flow3.1" vType="type1" speedFactor="1.18" vaporized=""/>
    <tripinfo id="flow4.0" depart="126.00" departLane="E2_0" departPos="5.10" departSpeed="0.00" departDelay="0.00" arrival="164.00" arrivalLane="E6_0" arrivalPos="86.40" arrivalSpeed="12.57" duration="38.00" routeLength="276.73" waitingTime="0.00" waitingCount="0" stopTime="0.00" timeLoss="16.92" rerouteNo="0" devices="tripinfo_flow4.0" vType="type1" speedFactor="1.04" vaporized=""/>
    <tripinfo id="flow22.2" depart="78.00" departLane="-E5_0" departPos="5.10" departSpeed="0.00" departDelay="0.00" arrival="165.00" arrivalLane="E0_0" arrivalPos="86.40" arrivalSpeed="11.92" duration="87.00" routeLength="276.73" waitingTime="38.00" waitingCount="1" stopTime="0.00" timeLoss="62.93" rerouteNo="0" devices="tripinfo_flow22.2" vType="type1" speedFactor="0.87" vaporized=""/>
    <tripinfo id="flow21.1" depart="151.00" departLane="-E5_0" departPos="5.10" departSpeed="0.00" departDelay="0.00" arrival="177.00" arrivalLane="-E4_0" arrivalPos="86.40" arrivalSpeed="11.59" duration="26.00" routeLength="176.73" waitingTime="0.00" waitingCount="0" stopTime="0.00" timeLoss="10.56" rerouteNo="0" devices="tripinfo_flow21.1" vType="type1" speedFactor="0.85" vaporized=""/>
    <tripinfo id="flow20.1" depart="85.00" departLane="-E5_0" departPos="5.10" departSpeed="0.00" departDelay="0.00" arrival="187.00" arrivalLane="E6_2" arrivalPos="86.40" arrivalSpeed="12.34" duration="102.00" routeLength="192.21" waitingTime="68.00" waitingCount="1" stopTime="0.00" timeLoss="86.19" rerouteNo="0" devices="tripinfo_flow20.1" vType="type1" speedFactor="0.92" vaporized=""/>
    <tripinfo id="flow2.0" depart="120.00" departLane="E2_0" departPos="5.10" departSpeed="0.00" departDelay="0.00" arrival="187.00" arrivalLane="-E4_2" arrivalPos="86.40" arrivalSpeed="11.95" duration="67.00" routeLength="292.21" waitingTime="16.00" waitingCount="1" stopTime="0.00" timeLoss="44.25" rerouteNo="0" devices="tripinfo_flow2.0" vType="type1" speedFactor="0.96" vaporized=""/>
    <tripinfo id="flow23.2" depart="32.00" departLane="-E5_0" departPos="5.10" departSpeed="0.00" departDelay="6.00" arrival="188.00" arrivalLane="-E1_2" arrivalPos="86.40" arrivalSpeed="11.42" duration="156.00" routeLength="292.21" waitingTime="97.00" waitingCount="2" stopTime="0.00" timeLoss="130.53" rerouteNo="0" devices="tripinfo_flow23.2" vType="type1" speedFactor="0.86" vaporized=""/>
    <tripinfo id="flow28.0" depart="58.00" departLane="E4_0" departPos="5.10" departSpeed="0.00" departDelay="0.00" arrival="190.00" arrivalLane="-E1_2" arrivalPos="86.40" arrivalSpeed="13.30" duration="132.00" routeLength="274.04" waitingTime="74.00" waitingCount="2" stopTime="0.00" timeLoss="110.49" rerouteNo="0" devices="tripinfo_flow28.0" vType="type1" speedFactor="1.02" vaporized=""/>
    <tripinfo id="flow20.2" depart="105.00" departLane="-E5_0" departPos="5.10" departSpeed="0.00" departDelay="0.00" arrival="190.00" arrivalLane="E6_2" arrivalPos="86.40" arrivalSpeed="13.38" duration="85.00" routeLength="192.21" waitingTime="48.00" waitingCount="1" stopTime="0.00" timeLoss="69.49" rerouteNo="0" devices="tripinfo_flow20.2" vType="type1" speedFactor="0.97" vaporized=""/>
    <tripinfo id="flow15.3" depart="117.00" departLane="-E6_0" departPos="5.10" departSpeed="0.00" departDelay="0.00" arrival="196.00" arrivalLane="-E4_0" arrivalPos="86.40" arrivalSpeed="12.57" duration="79.00" routeLength="194.90" waitingTime="46.00" waitingCount="1" stopTime="0.00" timeLoss="64.97" rerouteNo="0" devices="tripinfo_flow15.3" vType="type1" speedFactor="1.03" vaporized=""/>
    <tripinfo id="flow26.0" depart="129.00" departLane="E4_0" departPos="5.10" departSpeed="0.00" departDelay="0.00" arrival="196.00" arrivalLane="E6_1" arrivalPos="86.40" arrivalSpeed="13.00" duration="67.00" routeLength="194.90" waitingTime="34.00" waitingCount="1" stopTime="0.00" timeLoss="52.88" rerouteNo="0" devices="tripinfo_flow26.0" vType="type1" speedFactor="1.04" vaporized=""/>
    <tripinfo id="flow15.4" depart="153.00" departLane="-E6_0" departPos="5.10" departSpeed="0.00" departDelay="0.00" arrival="196.00" arrivalLane="-E4_1" arrivalPos="86.40" arrivalSpeed="12.79" duration="43.00" routeLength="194.90" waitingTime="10.00" waitingCount="1" stopTime="0.00" timeLoss="28.73" rerouteNo="0" devices="tripinfo_flow15.4" vType="type1" speedFactor="1.02" vaporized=""/>
    <tripinfo id="flow11.0" depart="133.00" departLane="-E0_0" departPos="5.10" departSpeed="0.00" departDelay="0.00" arrival="197.00" arrivalLane="-E1_0" arrivalPos="86.40" arrivalSpeed="12.71" duration="64.00" routeLength="194.90" waitingTime="30.00" waitingCount="1" stopTime="0.00" timeLoss="49.42" rerouteNo="0" devices="tripinfo_flow11.0" vType="type1" speedFactor="1.00" vaporized=""/>
    <tripinfo id="flow5.2" depart="144.00" departLane="E1_0" departPos="5.10" departSpeed="0.00" departDelay="0.00" arrival="197.00" arrivalLane="E0_0" arrivalPos="86.40" arrivalSpeed="12.09" duration="53.00" routeLength="194.90" waitingTime="20.00" waitingCount="1" stopTime="0.00" timeLoss="36.69" rerouteNo="0" devices="tripinfo_flow5.2" vType="type1" speedFactor="0.88" vaporized=""/>
    <tripinfo id="flow11.1" depart="147.00" departLane="-E0_0" departPos="5.10" departSpeed="0.00" departDelay="0.00" arrival="197.00" arrivalLane="-E1_1" arrivalPos="86.40" arrivalSpeed="11.32" duration="50.00" routeLength="194.90" waitingTime="16.00" waitingCount="1" stopTime="0.00" timeLoss="33.25" rerouteNo="0" devices="tripinfo_flow11.1" vType="type1" speedFactor="0.85" vaporized=""/>
    <tripinfo id="flow26.1" depart="136.00" departLane="E4_0" departPos="5.10" departSpeed="0.00" departDelay="0.00" arrival="199.00" arrivalLane="E6_1" arrivalPos="86.40" arrivalSpeed="12.25" duration="63.00" routeLength="194.90" waitingTime="25.00" waitingCount="1" stopTime="0.00" timeLoss="46.72" rerouteNo="0" devices="tripinfo_flow26.1" vType="type1" speedFactor="0.90" vaporized=""/>
    <tripinfo id="flow11.2" depart="154.00" departLane="-E0_0" departPos="5.10" departSpeed="0.00" departDelay="0.00" arrival="199.00" arrivalLane="-E1_0" arrivalPos="86.40" arrivalSpeed="13.44" duration="45.00" routeLength="194.90" waitingTime="7.00" waitingCount="1" stopTime="0.00" timeLoss="30.20" rerouteNo="0" devices="tripinfo_flow11.2" vType="type1" speedFactor="1.10" vaporized=""/>
    <tripinfo id="flow25.0" depart="151.00" departLane="E4_0" departPos="5.10" departSpeed="0.00" departDelay="0.00" arrival="233.00" arrivalLane="E5_2" arrivalPos="86.40" arrivalSpeed="12.82" duration="82.00" routeLength="192.21" waitingTime="48.00" waitingCount="1" stopTime="0.00" timeLoss="67.41" rerouteNo="0" devices="tripinfo_flow25.0" vType="type1" speedFactor="1.17" vaporized=""/>
    <tripinfo id="flow9.2" depart="161.00" departLane="E1_0" departPos="5.10" departSpeed="0.00" departDelay="1.00" arrival="240.00" arrivalLane="E6_0" arrivalPos="86.40" arrivalSpeed="11.50" duration="79.00" routeLength="258.56" waitingTime="27.00" waitingCount="2" stopTime="0.00" timeLoss="59.04" rerouteNo="0" devices="tripinfo_flow9.2" vType="type1" speedFactor="1.00" vaporized=""/>
    <tripinfo id="flow13.0" depart="180.00" departLane="-E0_0" departPos="5.10" departSpeed="0.00" departDelay="0.00" arrival="242.00" arrivalLane="E5_1" arrivalPos="86.40" arrivalSpeed="13.34" duration="62.00" routeLength="292.21" waitingTime="17.00" waitingCount="1" stopTime="0.00" timeLoss="38.70" rerouteNo="0" devices="tripinfo_flow13.0" vType="type1" speedFactor="0.97" vaporized=""/>
    <tripinfo id="flow9.3" depart="165.00" departLane="E1_0" departPos="5.10" departSpeed="0.00" departDelay="0.00" arrival="243.00" arrivalLane="E6_0" arrivalPos="86.40" arrivalSpeed="12.45" duration="78.00" routeLength="258.56" waitingTime="24.00" waitingCount="2" stopTime="0.00" timeLoss="57.45" rerouteNo="0" devices="tripinfo_flow9.3" vType="type1" speedFactor="1.14" vaporized=""/>
    <tripinfo id="flow14.3" depart="173.00" departLane="-E0_0" departPos="5.10" departSpeed="0.00" departDelay="0.00" arrival="245.00" arrivalLane="E6_0" arrivalPos="86.40" arrivalSpeed="13.62" duration="72.00" routeLength="274.04" waitingTime="26.00" waitingCount="1" stopTime="0.00" timeLoss="49.98" rerouteNo="0" devices="tripinfo_flow14.3" vType="type1" speedFactor="1.02" vaporized=""/>
    <tripinfo id="flow30.2" depart="182.00" departLane="E2_0" departPos="5.10" departSpeed="0.00" departDelay="0.00" arrival="249.00" arrivalLane="E5_1" arrivalPos="86.40" arrivalSpeed="13.81" duration="67.00" routeLength="294.90" waitingTime="26.00" waitingCount="1" stopTime="0.00" timeLoss="45.02" rerouteNo="0" devices="tripinfo_flow30.2" vType="type2" speedFactor="1.08" vaporized=""/>
    <tripinfo id="flow30.1" depart="164.00" departLane="E2_0" departPos="5.10" departSpeed="0.00" departDelay="0.00" arrival="250.00" arrivalLane="E5_0" arrivalPos="86.40" arrivalSpeed="12.36" duration="86.00" routeLength="294.90" waitingTime="45.00" waitingCount="1" stopTime="0.00" timeLoss="61.65" rerouteNo="0" devices="tripinfo_flow30.1" vType="type2" speedFactor="0.90" vaporized=""/>
    <tripinfo id="flow22.3" depart="185.00" departLane="-E5_0" departPos="5.10" departSpeed="0.00" departDelay="0.00" arrival="251.00" arrivalLane="E0_0" arrivalPos="86.40" arrivalSpeed="12.95" duration="66.00" routeLength="276.73" waitingTime="23.00" waitingCount="1" stopTime="0.00" timeLoss="45.50" rerouteNo="0" devices="tripinfo_flow22.3" vType="type1" speedFactor="1.12" vaporized=""/>
    <tripinfo id="flow28.1" depart="92.00" departLane="E4_0" departPos="5.10" departSpeed="0.00" departDelay="0.00" arrival="277.00" arrivalLane="-E1_2" arrivalPos="86.40" arrivalSpeed="12.72" duration="185.00" routeLength="274.04" waitingTime="131.00" waitingCount="2" stopTime="0.00" timeLoss="161.75" rerouteNo="0" devices="tripinfo_flow28.1" vType="type1" speedFactor="0.93" vaporized=""/>
    <tripinfo id="flow7.0" depart="156.00" departLane="E1_0" departPos="5.10" departSpeed="0.00" departDelay="0.00" arrival="278.00" arrivalLane="-E4_2" arrivalPos="86.40" arrivalSpeed="12.72" duration="122.00" routeLength="274.04" waitingTime="68.00" waitingCount="2" stopTime="0.00" timeLoss="100.54" rerouteNo="0" devices="tripinfo_flow7.0" vType="type1" speedFactor="1.00" vaporized=""/>
    <tripinfo id="flow23.3" depart="94.00" departLane="-E5_0" departPos="5.10" departSpeed="0.00" departDelay="0.00" arrival="279.00" arrivalLane="-E1_2" arrivalPos="86.40" arrivalSpeed="13.21" duration="185.00" routeLength="292.21" waitingTime="122.00" waitingCount="3" stopTime="0.00" timeLoss="163.22" rerouteNo="0" devices="tripinfo_flow23.3" vType="type1" speedFactor="1.15" vaporized=""/>
    <tripinfo id="flow7.1" depart="186.00" departLane="E1_0" departPos="5.10" departSpeed="0.00" departDelay="0.00" arrival="280.00" arrivalLane="-E4_2" arrivalPos="86.40" arrivalSpeed="13.50" duration="94.00" routeLength="274.04" waitingTime="46.00" waitingCount="1" stopTime="0.00" timeLoss="71.97" rerouteNo="0" devices="tripinfo_flow7.1" vType="type1" speedFactor="1.02" vaporized=""/>
    <tripinfo id="flow26.2" depart="260.00" departLane="E4_0" departPos="5.10" departSpeed="0.00" departDelay="0.00" arrival="283.00" arrivalLane="E6_1" arrivalPos="86.40" arrivalSpeed="13.54" duration="23.00" routeLength="194.90" waitingTime="0.00" waitingCount="0" stopTime="0.00" timeLoss="8.43" rerouteNo="0" devices="tripinfo_flow26.2" vType="type1" speedFactor="1.15" vaporized=""/>
    <tripinfo id="flow10.1" depart="243.00" departLane="-E0_0" departPos="5.10" departSpeed="0.00" departDelay="0.00" arrival="285.00" arrivalLane="-E2_0" arrivalPos="86.40" arrivalSpeed="11.29" duration="42.00" routeLength="176.73" waitingTime="10.00" waitingCount="1" stopTime="0.00" timeLoss="28.80" rerouteNo="0" devices="tripinfo_flow10.1" vType="type1" speedFactor="1.09" vaporized=""/>
    <tripinfo id="flow5.3" depart="201.00" departLane="E1_0" departPos="5.10" departSpeed="0.00" departDelay="0.00" arrival="287.00" arrivalLane="E0_0" arrivalPos="86.40" arrivalSpeed="12.08" duration="86.00" routeLength="194.90" waitingTime="51.00" waitingCount="1" stopTime="0.00" timeLoss="69.30" rerouteNo="0" devices="tripinfo_flow5.3" vType="type1" speedFactor="0.88" vaporized=""/>
    <tripinfo id="flow15.5" depart="215.00" departLane="-E6_0" departPos="5.10" departSpeed="0.00" departDelay="0.00" arrival="287.00" arrivalLane="-E4_0" arrivalPos="86.40" arrivalSpeed="12.70" duration="72.00" routeLength="194.90" waitingTime="38.00" waitingCount="1" stopTime="0.00" timeLoss="56.52" rerouteNo="0" devices="tripinfo_flow15.5" vType="type1" speedFactor="0.94" vaporized=""/>
    <tripinfo id="flow16.2" depart="265.00" departLane="-E6_0" departPos="5.10" departSpeed="0.00" departDelay="0.00" arrival="291.00" arrivalLane="E5_0" arrivalPos="86.40" arrivalSpeed="12.83" duration="26.00" routeLength="176.73" waitingTime="0.00" waitingCount="0" stopTime="0.00" timeLoss="11.33" rerouteNo="0" devices="tripinfo_flow16.2" vType="type1" speedFactor="0.98" vaporized=""/>
    <tripinfo id="flow15.6" depart="289.00" departLane="-E6_0" departPos="5.10" departSpeed="0.00" departDelay="0.00" arrival="313.00" arrivalLane="-E4_0" arrivalPos="86.40" arrivalSpeed="11.20" duration="24.00" routeLength="194.90" waitingTime="0.00" waitingCount="0" stopTime="0.00" timeLoss="6.52" rerouteNo="0" devices="tripinfo_flow15.6" vType="type1" speedFactor="0.83" vaporized=""/>
    <tripinfo id="flow6.0" depart="236.00" departLane="E1_0" departPos="5.10" departSpeed="0.00" departDelay="0.00" arrival="322.00" arrivalLane="-E2_2" arrivalPos="86.40" arrivalSpeed="12.64" duration="86.00" routeLength="192.21" waitingTime="53.00" waitingCount="1" stopTime="0.00" timeLoss="71.53" rerouteNo="0" devices="tripinfo_flow6.0" vType="type1" speedFactor="1.03" vaporized=""/>
    <tripinfo id="flow6.1" depart="283.00" departLane="E1_0" departPos="5.10" departSpeed="0.00" departDelay="0.00" arrival="324.00" arrivalLane="-E2_2" arrivalPos="86.40" arrivalSpeed="12.83" duration="41.00" routeLength="192.21" waitingTime="5.00" waitingCount="1" stopTime="0.00" timeLoss="26.16" rerouteNo="0" devices="tripinfo_flow6.1" vType="type1" speedFactor="1.01" vaporized=""/>
    <tripinfo id="flow4.1" depart="240.00" departLane="E2_0" departPos="5.10" departSpeed="0.00" departDelay="0.00" arrival="330.00" arrivalLane="E6_0" arrivalPos="86.40" arrivalSpeed="11.72" duration="90.00" routeLength="276.73" waitingTime="50.00" waitingCount="1" stopTime="0.00" timeLoss="68.52" rerouteNo="0" devices="tripinfo_flow4.1" vType="type1" speedFactor="0.98" vaporized=""/>
    <tripinfo id="flow29.3" depart="208.00" departLane="E4_0" departPos="5.10" departSpeed="0.00" departDelay="0.00" arrival="331.00" arrivalLane="-E2_0" arrivalPos="86.40" arrivalSpeed="13.37" duration="123.00" routeLength="276.73" waitingTime="73.00" waitingCount="2" stopTime="0.00" timeLoss="102.30" rerouteNo="0" devices="tripinfo_flow29.3" vType="type1" speedFactor="1.04" vaporized=""/>
    <tripinfo id="flow21.2" depart="268.00" departLane="-E5_0" departPos="5.10" departSpeed="0.00" departDelay="0.00" arrival="331.00" arrivalLane="-E4_0" arrivalPos="86.40" arrivalSpeed="12.53" duration="63.00" routeLength="176.73" waitingTime="30.00" waitingCount="1" stopTime="0.00" timeLoss="49.56" rerouteNo="0" devices="tripinfo_flow21.2" vType="type1" speedFactor="1.00" vaporized=""/>
    <tripinfo id="flow9.4" depart="208.00" departLane="E1_0" departPos="5.10" departSpeed="0.00" departDelay="0.00" arrival="332.00" arrivalLane="E6_0" arrivalPos="86.40" arrivalSpeed="12.34" duration="124.00" routeLength="258.56" waitingTime="68.00" waitingCount="2" stopTime="0.00" timeLoss="101.57" rerouteNo="0" devices="tripinfo_flow9.4" vType="type1" speedFactor="0.91" vaporized=""/>
    <tripinfo id="flow8.0" depart="218.00" departLane="E1_0" departPos="5.10" departSpeed="0.00" departDelay="0.00" arrival="332.00" arrivalLane="E5_1" arrivalPos="86.40" arrivalSpeed="13.14" duration="114.00" routeLength="276.73" waitingTime="61.00" waitingCount="2" stopTime="0.00" timeLoss="91.66" rerouteNo="0" devices="tripinfo_flow8.0" vType="type1" speedFactor="0.96" vaporized=""/>
    <tripinfo id="flow29.4" depart="242.00" departLane="E4_0" departPos="5.10" departSpeed="0.00" departDelay="0.00" arrival="332.00" arrivalLane="-E2_1" arrivalPos="86.40" arrivalSpeed="13.61" duration="90.00" routeLength="276.73" waitingTime="35.00" waitingCount="2" stopTime="0.00" timeLoss="68.31" rerouteNo="0" devices="tripinfo_flow29.4" vType="type1" speedFactor="1.01" vaporized=""/>
    <tripinfo id="flow13.1" depart="194.00" departLane="-E0_0" departPos="5.10" departSpeed="0.00" departDelay="0.00" arrival="334.00" arrivalLane="E5_1" arrivalPos="86.40" arrivalSpeed="12.77" duration="140.00" routeLength="292.21" waitingTime="86.00" waitingCount="2" stopTime="0.00" timeLoss="116.82" rerouteNo="0" devices="tripinfo_flow13.1" vType="type1" speedFactor="0.94" vaporized=""/>