<?xml version="1.0" encoding="UTF-8"?>

<!-- generated on 2024-07-25 09:40:30 by Eclipse SUMO sumo Version 1.20.0
<configuration xmlns:xsi="http://www.w3.org/2001/XMLSchema-instance" xsi:noNamespaceSchemaLocation="http://sumo.dlr.de/xsd/sumoConfiguration.xsd">

    <input>
        <net-file value="sumo_rl/nets/two_intersections/two_intersections.net.xml"/>
        <route-files value="sumo_rl/nets/two_intersections/two_intersections.flow.rou.xml"/>
    </input>

    <output>
        <output-prefix value="TIME"/>
        <tripinfo-output value="sumo_rl/nets/two_intersections/tripinfo.xml"/>
    </output>

    <time>
        <step-length value="0.1"/>
    </time>

    <processing>
        <lateral-resolution value="0.1"/>
    </processing>

    <traci_server>
        <remote-port value="51533"/>
    </traci_server>

    <gui_only>
        <tracker-interval value="0.1"/>
    </gui_only>

</configuration>
-->

<tripinfos xmlns:xsi="http://www.w3.org/2001/XMLSchema-instance" xsi:noNamespaceSchemaLocation="http://sumo.dlr.de/xsd/tripinfo_file.xsd">
    <tripinfo id="flow15.0" depart="3.40" departLane="-E6_0" departPos="5.10" departPosLat="0.00" departSpeed="0.00" departDelay="0.00" arrival="26.80" arrivalLane="-E4_0" arrivalPos="86.40" arrivalPosLat="0.00" arrivalSpeed="13.00" duration="23.40" routeLength="194.90" waitingTime="0.00" waitingCount="0" stopTime="0.00" timeLoss="8.45" rerouteNo="0" devices="tripinfo_flow15.0" vType="type1" speedFactor="0.94" vaporized=""/>
    <tripinfo id="flow29.0" depart="0.40" departLane="E4_0" departPos="5.10" departPosLat="0.00" departSpeed="0.00" departDelay="0.00" arrival="62.00" arrivalLane="-E2_0" arrivalPos="86.40" arrivalPosLat="-0.00" arrivalSpeed="13.32" duration="61.60" routeLength="276.73" waitingTime="18.70" waitingCount="1" stopTime="0.00" timeLoss="41.02" rerouteNo="0" devices="tripinfo_flow29.0" vType="type1" speedFactor="1.06" vaporized=""/>
    <tripinfo id="flow0.0" depart="31.80" departLane="E2_0" departPos="5.10" departPosLat="0.00" departSpeed="0.00" departDelay="0.00" arrival="62.10" arrivalLane="-E1_0" arrivalPos="86.40" arrivalPosLat="0.00" arrivalSpeed="11.86" duration="30.30" routeLength="176.73" waitingTime="0.00" waitingCount="0" stopTime="0.00" timeLoss="14.53" rerouteNo="0" devices="tripinfo_flow0.0" vType="type1" speedFactor="0.86" vaporized=""/>
    <tripinfo id="flow24.0" depart="24.60" departLane="-E5_0" departPos="5.10" departPosLat="0.00" departSpeed="0.00" departDelay="0.00" arrival="69.60" arrivalLane="-E2_0" arrivalPos="86.40" arrivalPosLat="0.00" arrivalSpeed="13.85" duration="45.00" routeLength="294.90" waitingTime="4.20" waitingCount="1" stopTime="0.00" timeLoss="23.76" rerouteNo="0" devices="tripinfo_flow24.0" vType="type1" speedFactor="1.05" vaporized=""/>
    <tripinfo id="flow4.0" depart="24.00" departLane="E2_0" departPos="5.10" departPosLat="0.00" departSpeed="0.00" departDelay="0.00" arrival="73.80" arrivalLane="E6_0" arrivalPos="86.40" arrivalPosLat="0.00" arrivalSpeed="11.51" duration="49.80" routeLength="276.73" waitingTime="4.60" waitingCount="1" stopTime="0.00" timeLoss="24.94" rerouteNo="0" devices="tripinfo_flow4.0" vType="type1" speedFactor="0.83" vaporized=""/>
    <tripinfo id="flow4.1" depart="53.50" departLane="E2_0" departPos="5.10" departPosLat="0.00" departSpeed="0.00" departDelay="1.30" arrival="88.50" arrivalLane="E6_0" arrivalPos="86.40" arrivalPosLat="0.00" arrivalSpeed="12.77" duration="35.00" routeLength="276.73" waitingTime="0.00" waitingCount="0" stopTime="0.00" timeLoss="13.09" rerouteNo="0" devices="tripinfo_flow4.1" vType="type1" speedFactor="0.94" vaporized=""/>
    <tripinfo id="flow7.0" depart="15.60" departLane="E1_0" departPos="5.10" departPosLat="0.00" departSpeed="0.00" departDelay="0.00" arrival="97.70" arrivalLane="-E4_2" arrivalPos="86.40" arrivalPosLat="0.00" arrivalSpeed="12.88" duration="82.10" routeLength="274.04" waitingTime="38.40" waitingCount="1" stopTime="0.00" timeLoss="61.28" rerouteNo="0" devices="tripinfo_flow7.0" vType="type1" speedFactor="1.08" vaporized=""/>
    <tripinfo id="flow1.0" depart="36.30" departLane="E2_0" departPos="5.10" departPosLat="0.00" departSpeed="0.00" departDelay="0.00" arrival="97.90" arrivalLane="E0_2" arrivalPos="86.40" arrivalPosLat="0.00" arrivalSpeed="13.08" duration="61.60" routeLength="192.21" waitingTime="28.40" waitingCount="1" stopTime="0.00" timeLoss="47.26" rerouteNo="0" devices="tripinfo_flow1.0" vType="type1" speedFactor="1.05" vaporized=""/>
    <tripinfo id="flow18.0" depart="7.70" departLane="-E6_0" departPos="5.10" departPosLat="0.00" departSpeed="0.00" departDelay="1.80" arrival="98.00" arrivalLane="-E1_2" arrivalPos="86.40" arrivalPosLat="0.00" arrivalSpeed="13.06" duration="90.30" routeLength="289.52" waitingTime="39.20" waitingCount="2" stopTime="0.00" timeLoss="68.28" rerouteNo="0" devices="tripinfo_flow18.0" vType="type1" speedFactor="1.01" vaporized=""/>
    <tripinfo id="flow18.1" depart="21.10" departLane="-E6_0" departPos="5.10" departPosLat="0.00" departSpeed="0.00" departDelay="0.00" arrival="99.40" arrivalLane="-E1_2" arrivalPos="86.40" arrivalPosLat="0.00" arrivalSpeed="13.14" duration="78.30" routeLength="289.52" waitingTime="26.20" waitingCount="1" stopTime="0.00" timeLoss="56.39" rerouteNo="0" devices="tripinfo_flow18.1" vType="type1" speedFactor="1.03" vaporized=""/>
    <tripinfo id="flow15.1" depart="49.40" departLane="-E6_0" departPos="5.10" departPosLat="0.00" departSpeed="0.00" departDelay="0.00" arrival="106.90" arrivalLane="-E4_0" arrivalPos="86.40" arrivalPosLat="0.00" arrivalSpeed="12.83" duration="57.50" routeLength="194.90" waitingTime="24.20" waitingCount="1" stopTime="0.00" timeLoss="42.36" rerouteNo="0" devices="tripinfo_flow15.1" vType="type1" speedFactor="0.93" vaporized=""/>
    <tripinfo id="flow26.0" depart="26.00" departLane="E4_0" departPos="5.10" departPosLat="0.00" departSpeed="0.00" departDelay="0.00" arrival="107.30" arrivalLane="E6_1" arrivalPos="86.40" arrivalPosLat="0.00" arrivalSpeed="12.28" duration="81.30" routeLength="194.90" waitingTime="47.50" waitingCount="1" stopTime="0.00" timeLoss="65.43" rerouteNo="0" devices="tripinfo_flow26.0" vType="type1" speedFactor="0.89" vaporized=""/>
    <tripinfo id="flow10.0" depart="86.40" departLane="-E0_0" departPos="5.10" departPosLat="0.00" departSpeed="0.00" departDelay="0.00" arrival="112.20" arrivalLane="-E2_0" arrivalPos="86.40" arrivalPosLat="0.00" arrivalSpeed="12.98" duration="25.80" routeLength="176.73" waitingTime="0.00" waitingCount="0" stopTime="0.00" timeLoss="11.58" rerouteNo="0" devices="tripinfo_flow10.0" vType="type1" speedFactor="0.95" vaporized=""/>
    <tripinfo id="flow26.1" depart="91.30" departLane="E4_0" departPos="5.10" departPosLat="0.00" departSpeed="0.00" departDelay="0.00" arrival="114.80" arrivalLane="E6_1" arrivalPos="86.40" arrivalPosLat="0.00" arrivalSpeed="12.89" duration="23.50" routeLength="194.90" waitingTime="0.00" waitingCount="0" stopTime="0.00" timeLoss="8.39" rerouteNo="0" devices="tripinfo_flow26.1" vType="type1" speedFactor="0.93" vaporized=""/>
    <tripinfo id="flow8.0" depart="50.00" departLane="E1_0" departPos="5.10" departPosLat="0.00" departSpeed="0.00" departDelay="0.00" arrival="152.10" arrivalLane="E5_0" arrivalPos="86.40" arrivalPosLat="-0.00" arrivalSpeed="12.20" duration="102.10" routeLength="276.73" waitingTime="52.20" waitingCount="2" stopTime="0.00" timeLoss="78.52" rerouteNo="0" devices="tripinfo_flow8.0" vType="type1" speedFactor="0.88" vaporized=""/>
    <tripinfo id="flow29.1" depart="58.10" departLane="E4_0" departPos="5.10" departPosLat="0.00" departSpeed="0.00" departDelay="0.00" arrival="152.30" arrivalLane="-E2_1" arrivalPos="86.40" arrivalPosLat="0.00" arrivalSpeed="12.96" duration="94.20" routeLength="276.73" waitingTime="43.20" waitingCount="2" stopTime="0.00" timeLoss="72.11" rerouteNo="0" devices="tripinfo_flow29.1" vType="type1" speedFactor="0.94" vaporized=""/>
    <tripinfo id="flow13.0" depart="33.70" departLane="-E0_0" departPos="5.10" departPosLat="0.00" departSpeed="0.00" departDelay="0.00" arrival="155.10" arrivalLane="E5_0" arrivalPos="86.40" arrivalPosLat="-0.00" arrivalSpeed="13.88" duration="121.40" routeLength="292.21" waitingTime="76.10" waitingCount="1" stopTime="0.00" timeLoss="99.95" rerouteNo="0" devices="tripinfo_flow13.0" vType="type1" speedFactor="1.09" vaporized=""/>
    <tripinfo id="flow3.0" depart="74.60" departLane="E2_0" departPos="5.10" departPosLat="0.00" departSpeed="0.00" departDelay="0.00" arrival="159.60" arrivalLane="E5_0" arrivalPos="86.40" arrivalPosLat="0.00" arrivalSpeed="13.53" duration="85.00" routeLength="294.90" waitingTime="44.20" waitingCount="1" stopTime="0.00" timeLoss="63.19" rerouteNo="0" devices="tripinfo_flow3.0" vType="type1" speedFactor="0.97" vaporized=""/>
    <tripinfo id="flow24.1" depart="86.70" departLane="-E5_0" departPos="5.10" departPosLat="0.00" departSpeed="0.00" departDelay="3.70" arrival="160.00" arrivalLane="-E2_1" arrivalPos="86.40" arrivalPosLat="0.00" arrivalSpeed="12.70" duration="73.30" routeLength="294.90" waitingTime="32.30" waitingCount="1" stopTime="0.00" timeLoss="50.13" rerouteNo="0" devices="tripinfo_flow24.1" vType="type1" speedFactor="0.92" vaporized=""/>
    <tripinfo id="flow24.2" depart="97.20" departLane="-E5_0" departPos="5.10" departPosLat="0.00" departSpeed="0.00" departDelay="0.00" arrival="161.40" arrivalLane="-E2_1" arrivalPos="86.40" arrivalPosLat="0.00" arrivalSpeed="13.60" duration="64.20" routeLength="294.90" waitingTime="16.90" waitingCount="1" stopTime="0.00" timeLoss="42.92" rerouteNo="0" devices="tripinfo_flow24.2" vType="type1" speedFactor="1.18" vaporized=""/>
    <tripinfo id="flow22.0" depart="74.80" departLane="-E5_0" departPos="5.10" departPosLat="0.00" departSpeed="0.00" departDelay="0.00" arrival="163.30" arrivalLane="E0_0" arrivalPos="86.40" arrivalPosLat="0.00" arrivalSpeed="12.35" duration="88.50" routeLength="276.73" waitingTime="44.10" waitingCount="1" stopTime="0.00" timeLoss="65.26" rerouteNo="0" devices="tripinfo_flow22.0" vType="type1" speedFactor="0.89" vaporized=""/>
    <tripinfo id="flow4.2" depart="78.90" departLane="E2_0" departPos="5.10" departPosLat="0.00" departSpeed="0.00" departDelay="0.80" arrival="165.60" arrivalLane="E6_0" arrivalPos="86.40" arrivalPosLat="0.00" arrivalSpeed="11.46" duration="86.70" routeLength="276.73" waitingTime="35.70" waitingCount="2" stopTime="0.00" timeLoss="61.68" rerouteNo="0" devices="tripinfo_flow4.2" vType="type1" speedFactor="0.83" vaporized=""/>
    <tripinfo id="flow22.1" depart="82.30" departLane="-E5_0" departPos="5.10" departPosLat="0.00" departSpeed="0.00" departDelay="0.00" arrival="166.00" arrivalLane="E0_0" arrivalPos="86.40" arrivalPosLat="0.00" arrivalSpeed="12.10" duration="83.70" routeLength="276.73" waitingTime="31.70" waitingCount="1" stopTime="0.00" timeLoss="59.95" rerouteNo="0" devices="tripinfo_flow22.1" vType="type1" speedFactor="0.87" vaporized=""/>
    <tripinfo id="flow3.1" depart="88.10" departLane="E2_0" departPos="5.10" departPosLat="0.00" departSpeed="0.00" departDelay="0.00" arrival="171.50" arrivalLane="E5_0" arrivalPos="86.40" arrivalPosLat="-0.00" arrivalSpeed="13.74" duration="83.40" routeLength="294.90" waitingTime="30.70" waitingCount="1" stopTime="0.00" timeLoss="62.15" rerouteNo="0" devices="tripinfo_flow3.1" vType="type1" speedFactor="1.13" vaporized=""/>
    <tripinfo id="flow2.1" depart="60.60" departLane="E2_0" departPos="5.10" departPosLat="0.00" departSpeed="0.00" departDelay="0.00" arrival="187.60" arrivalLane="-E4_2" arrivalPos="86.40" arrivalPosLat="0.00" arrivalSpeed="13.01" duration="127.00" routeLength="292.21" waitingTime="81.80" waitingCount="1" stopTime="0.00" timeLoss="105.69" rerouteNo="0" devices="tripinfo_flow2.1" vType="type1" speedFactor="1.16" vaporized=""/>
    <tripinfo id="flow23.0" depart="29.20" departLane="-E5_0" departPos="5.10" departPosLat="0.00" departSpeed="0.00" departDelay="0.00" arrival="187.80" arrivalLane="-E1_2" arrivalPos="86.40" arrivalPosLat="0.00" arrivalSpeed="12.89" duration="158.60" routeLength="292.21" waitingTime="97.70" waitingCount="2" stopTime="0.00" timeLoss="135.49" rerouteNo="0" devices="tripinfo_flow23.0" vType="type1" speedFactor="0.94" vaporized=""/>
    <tripinfo id="flow18.2" depart="35.70" departLane="-E6_0" departPos="5.10" departPosLat="0.00" departSpeed="0.00" departDelay="0.00" arrival="189.30" arrivalLane="-E1_2" arrivalPos="86.40" arrivalPosLat="0.00" arrivalSpeed="13.35" duration="153.60" routeLength="289.52" waitingTime="95.90" waitingCount="2" stopTime="0.00" timeLoss="131.60" rerouteNo="0" devices="tripinfo_flow18.2" vType="type1" speedFactor="1.03" vaporized=""/>
    <tripinfo id="flow10.1" depart="138.50" departLane="-E0_0" departPos="5.10" departPosLat="0.00" departSpeed="0.00" departDelay="0.00" arrival="196.00" arrivalLane="-E2_0" arrivalPos="86.40" arrivalPosLat="0.00" arrivalSpeed="12.01" duration="57.50" routeLength="176.73" waitingTime="25.50" waitingCount="1" stopTime="0.00" timeLoss="44.17" rerouteNo="0" devices="tripinfo_flow10.1" vType="type1" speedFactor="1.18" vaporized=""/>
    <tripinfo id="flow11.0" depart="162.80" departLane="-E0_0" departPos="5.10" departPosLat="0.00" departSpeed="0.00" departDelay="0.00" arrival="197.40" arrivalLane="-E1_1" arrivalPos="86.40" arrivalPosLat="0.00" arrivalSpeed="12.97" duration="34.60" routeLength="194.90" waitingTime="0.80" waitingCount="1" stopTime="0.00" timeLoss="20.56" rerouteNo="0" devices="tripinfo_flow11.0" vType="type1" speedFactor="1.04" vaporized=""/>
    <tripinfo id="flow6.0" depart="198.80" departLane="E1_0" departPos="5.10" departPosLat="0.00" departSpeed="0.00" departDelay="0.00" arrival="233.10" arrivalLane="-E2_2" arrivalPos="86.40" arrivalPosLat="0.00" arrivalSpeed="12.75" duration="34.30" routeLength="192.21" waitingTime="0.70" waitingCount="1" stopTime="0.00" timeLoss="20.20" rerouteNo="0" devices="tripinfo_flow6.0" vType="type1" speedFactor="1.17" vaporized=""/>
    <tripinfo id="flow21.0" depart="176.60" departLane="-E5_0" departPos="5.10" departPosLat="0.00" departSpeed="0.00" departDelay="1.40" arrival="240.50" arrivalLane="-E4_0" arrivalPos="86.40" arrivalPosLat="0.00" arrivalSpeed="12.06" duration="63.90" routeLength="176.73" waitingTime="32.10" waitingCount="1" stopTime="0.00" timeLoss="50.35" rerouteNo="0" devices="tripinfo_flow21.0" vType="type1" speedFactor="1.00" vaporized=""/>
    <tripinfo id="flow0.1" depart="161.30" departLane="E2_0" departPos="5.10" departPosLat="0.00" departSpeed="0.00" departDelay="0.00" arrival="240.60" arrivalLane="-E1_0" arrivalPos="86.40" arrivalPosLat="0.00" arrivalSpeed="11.91" duration="79.30" routeLength="176.73" waitingTime="47.40" waitingCount="1" stopTime="0.00" timeLoss="65.89" rerouteNo="0" devices="tripinfo_flow0.1" vType="type1" speedFactor="1.04" vaporized=""/>
    <tripinfo id="flow9.0" depart="132.60" departLane="E1_0" departPos="5.10" departPosLat="0.00" departSpeed="0.00" departDelay="0.00" arrival="242.10" arrivalLane="E6_0" arrivalPos="86.40" arrivalPosLat="0.00" arrivalSpeed="12.48" duration="109.50" routeLength="258.56" waitingTime="54.20" waitingCount="2" stopTime="0.00" timeLoss="88.90" rerouteNo="0" devices="tripinfo_flow9.0" vType="type1" speedFactor="0.97" vaporized=""/>
    <tripinfo id="flow8.1" depart="121.10" departLane="E1_0" departPos="5.10" departPosLat="0.00" departSpeed="0.00" departDelay="0.00" arrival="242.50" arrivalLane="E5_0" arrivalPos="86.40" arrivalPosLat="0.00" arrivalSpeed="13.13" duration="121.40" routeLength="276.73" waitingTime="71.40" waitingCount="2" stopTime="0.00" timeLoss="100.92" rerouteNo="0" devices="tripinfo_flow8.1" vType="type1" speedFactor="1.17" vaporized=""/>
    <tripinfo id="flow9.1" depart="153.70" departLane="E1_0" departPos="5.10" departPosLat="0.00" departSpeed="0.00" departDelay="0.00" arrival="243.50" arrivalLane="E6_0" arrivalPos="86.40" arrivalPosLat="0.00" arrivalSpeed="13.03" duration="89.80" routeLength="258.56" waitingTime="33.10" waitingCount="2" stopTime="0.00" timeLoss="69.86" rerouteNo="0" devices="tripinfo_flow9.1" vType="type1" speedFactor="1.09" vaporized=""/>
    <tripinfo id="flow19.0" depart="142.60" departLane="-E6_0" departPos="5.10" departPosLat="0.00" departSpeed="0.00" departDelay="2.70" arrival="244.30" arrivalLane="-E2_1" arrivalPos="86.40" arrivalPosLat="0.00" arrivalSpeed="12.50" duration="101.70" routeLength="292.21" waitingTime="53.70" waitingCount="1" stopTime="0.00" timeLoss="77.69" rerouteNo="0" devices="tripinfo_flow19.0" vType="type1" speedFactor="0.90" vaporized=""/>
    <tripinfo id="flow9.2" depart="186.80" departLane="E1_0" departPos="5.10" departPosLat="0.00" departSpeed="0.00" departDelay="0.00" arrival="246.00" arrivalLane="E6_0" arrivalPos="86.40" arrivalPosLat="0.00" arrivalSpeed="11.80" duration="59.20" routeLength="258.56" waitingTime="8.80" waitingCount="1" stopTime="0.00" timeLoss="35.51" rerouteNo="0" devices="tripinfo_flow9.2" vType="type1" speedFactor="0.85" vaporized=""/>
    <tripinfo id="flow14.0" depart="124.70" departLane="-E0_0" departPos="5.10" departPosLat="0.00" departSpeed="0.00" departDelay="0.00" arrival="248.40" arrivalLane="E6_0" arrivalPos="86.40" arrivalPosLat="-0.00" arrivalSpeed="13.03" duration="123.70" routeLength="274.04" waitingTime="75.00" waitingCount="1" stopTime="0.00" timeLoss="102.50" rerouteNo="0" devices="tripinfo_flow14.0" vType="type1" speedFactor="0.99" vaporized=""/>
    <tripinfo id="flow21.1" depart="224.20" departLane="-E5_0" departPos="5.10" departPosLat="0.00" departSpeed="0.00" departDelay="0.00" arrival="249.50" arrivalLane="-E4_0" arrivalPos="86.40" arrivalPosLat="0.00" arrivalSpeed="13.13" duration="25.30" routeLength="176.73" waitingTime="0.00" waitingCount="0" stopTime="0.00" timeLoss="11.85" rerouteNo="0" devices="tripinfo_flow21.1" vType="type1" speedFactor="1.02" vaporized=""/>
    <tripinfo id="flow22.2" depart="195.30" departLane="-E5_0" departPos="5.10" departPosLat="0.00" departSpeed="0.00" departDelay="0.00" arrival="254.90" arrivalLane="E0_0" arrivalPos="86.40" arrivalPosLat="0.00" arrivalSpeed="11.87" duration="59.60" routeLength="276.73" waitingTime="8.70" waitingCount="1" stopTime="0.00" timeLoss="35.45" rerouteNo="0" devices="tripinfo_flow22.2" vType="type1" speedFactor="0.85" vaporized=""/>
    <tripinfo id="flow4.3" depart="223.40" departLane="E2_0" departPos="5.10" departPosLat="0.00" departSpeed="0.00" departDelay="0.00" arrival="256.80" arrivalLane="E6_0" arrivalPos="86.40" arrivalPosLat="0.00" arrivalSpeed="13.53" duration="33.40" routeLength="276.73" waitingTime="0.00" waitingCount="0" stopTime="0.00" timeLoss="12.89" rerouteNo="0" devices="tripinfo_flow4.3" vType="type1" speedFactor="1.14" vaporized=""/>
