<?xml version="1.0" encoding="UTF-8"?>

<!-- generated on 2024-07-22 09:10:38 by Eclipse SUMO sumo Version 1.20.0
<configuration xmlns:xsi="http://www.w3.org/2001/XMLSchema-instance" xsi:noNamespaceSchemaLocation="http://sumo.dlr.de/xsd/sumoConfiguration.xsd">

    <input>
        <net-file value="sumo_rl/nets/two_intersections/two_intersections.net.xml"/>
        <route-files value="sumo_rl/nets/two_intersections/two_intersections.flow.rou.xml"/>
    </input>

    <output>
        <output-prefix value="TIME"/>
        <tripinfo-output value="sumo_rl/nets/two_intersections/tripinfo.xml"/>
    </output>

    <time>
        <step-length value="0.1"/>
    </time>

    <processing>
        <lateral-resolution value="0.1"/>
    </processing>

    <traci_server>
        <remote-port value="49369"/>
    </traci_server>

    <gui_only>
        <tracker-interval value="0.1"/>
    </gui_only>

</configuration>
-->

<tripinfos xmlns:xsi="http://www.w3.org/2001/XMLSchema-instance" xsi:noNamespaceSchemaLocation="http://sumo.dlr.de/xsd/tripinfo_file.xsd">
    <tripinfo id="flow13.0" depart="16.10" departLane="-E0_0" departPos="5.10" departPosLat="0.00" departSpeed="0.00" departDelay="0.00" arrival="60.40" arrivalLane="E5_1" arrivalPos="86.40" arrivalPosLat="0.00" arrivalSpeed="13.89" duration="44.30" routeLength="292.21" waitingTime="3.70" waitingCount="1" stopTime="0.00" timeLoss="22.81" rerouteNo="0" devices="tripinfo_flow13.0" vType="type1" speedFactor="1.08" vaporized=""/>
    <tripinfo id="flow19.0" depart="3.50" departLane="-E6_0" departPos="5.10" departPosLat="0.00" departSpeed="0.00" departDelay="0.00" arrival="60.70" arrivalLane="-E2_1" arrivalPos="86.40" arrivalPosLat="0.00" arrivalSpeed="13.01" duration="57.20" routeLength="292.21" waitingTime="16.40" waitingCount="1" stopTime="0.00" timeLoss="34.14" rerouteNo="0" devices="tripinfo_flow19.0" vType="type1" speedFactor="0.94" vaporized=""/>
    <tripinfo id="flow0.0" depart="29.10" departLane="E2_0" departPos="5.10" departPosLat="0.00" departSpeed="0.00" departDelay="3.60" arrival="63.20" arrivalLane="-E1_0" arrivalPos="86.40" arrivalPosLat="0.00" arrivalSpeed="13.02" duration="34.10" routeLength="176.73" waitingTime="0.00" waitingCount="0" stopTime="0.00" timeLoss="20.70" rerouteNo="0" devices="tripinfo_flow0.0" vType="type1" speedFactor="1.05" vaporized=""/>
    <tripinfo id="flow17.0" depart="7.20" departLane="-E6_0" departPos="5.10" departPosLat="0.00" departSpeed="0.00" departDelay="1.10" arrival="64.90" arrivalLane="E0_0" arrivalPos="86.40" arrivalPosLat="-0.00" arrivalSpeed="13.28" duration="57.70" routeLength="274.04" waitingTime="9.60" waitingCount="1" stopTime="0.00" timeLoss="36.63" rerouteNo="0" devices="tripinfo_flow17.0" vType="type1" speedFactor="1.01" vaporized=""/>
    <tripinfo id="flow3.0" depart="0.50" departLane="E2_0" departPos="5.10" departPosLat="0.00" departSpeed="0.00" departDelay="0.00" arrival="69.50" arrivalLane="E5_0" arrivalPos="86.40" arrivalPosLat="0.00" arrivalSpeed="13.86" duration="69.00" routeLength="294.90" waitingTime="28.10" waitingCount="1" stopTime="0.00" timeLoss="47.72" rerouteNo="0" devices="tripinfo_flow3.0" vType="type1" speedFactor="1.06" vaporized=""/>
    <tripinfo id="flow21.0" depart="46.80" departLane="-E5_0" departPos="5.10" departPosLat="0.00" departSpeed="0.00" departDelay="0.00" arrival="71.30" arrivalLane="-E4_0" arrivalPos="86.40" arrivalPosLat="0.00" arrivalSpeed="13.46" duration="24.50" routeLength="176.73" waitingTime="0.00" waitingCount="0" stopTime="0.00" timeLoss="11.19" rerouteNo="0" devices="tripinfo_flow21.0" vType="type1" speedFactor="1.12" vaporized=""/>
    <tripinfo id="flow4.0" depart="24.80" departLane="E2_0" departPos="5.10" departPosLat="0.00" departSpeed="0.00" departDelay="0.00" arrival="75.20" arrivalLane="E6_0" arrivalPos="86.40" arrivalPosLat="0.00" arrivalSpeed="11.54" duration="50.40" routeLength="276.73" waitingTime="0.00" waitingCount="0" stopTime="0.00" timeLoss="25.56" rerouteNo="0" devices="tripinfo_flow4.0" vType="type1" speedFactor="0.83" vaporized=""/>
    <tripinfo id="flow4.1" depart="37.50" departLane="E2_0" departPos="5.10" departPosLat="0.00" departSpeed="0.00" departDelay="0.00" arrival="77.30" arrivalLane="E6_0" arrivalPos="86.40" arrivalPosLat="0.00" arrivalSpeed="13.09" duration="39.80" routeLength="276.73" waitingTime="0.00" waitingCount="0" stopTime="0.00" timeLoss="19.22" rerouteNo="0" devices="tripinfo_flow4.1" vType="type1" speedFactor="1.05" vaporized=""/>
    <tripinfo id="flow20.0" depart="34.80" departLane="-E5_0" departPos="5.10" departPosLat="0.00" departSpeed="0.00" departDelay="0.00" arrival="97.80" arrivalLane="E6_2" arrivalPos="86.40" arrivalPosLat="0.00" arrivalSpeed="12.90" duration="63.00" routeLength="192.21" waitingTime="30.00" waitingCount="1" stopTime="0.00" timeLoss="48.74" rerouteNo="0" devices="tripinfo_flow20.0" vType="type1" speedFactor="1.09" vaporized=""/>
    <tripinfo id="flow5.0" depart="80.70" departLane="E1_0" departPos="5.10" departPosLat="0.00" departSpeed="0.00" departDelay="0.00" arrival="105.30" arrivalLane="E0_1" arrivalPos="86.40" arrivalPosLat="0.00" arrivalSpeed="11.46" duration="24.60" routeLength="194.90" waitingTime="0.00" waitingCount="0" stopTime="0.00" timeLoss="7.53" rerouteNo="0" devices="tripinfo_flow5.0" vType="type1" speedFactor="0.83" vaporized=""/>
    <tripinfo id="flow10.0" depart="60.10" departLane="-E0_0" departPos="5.10" departPosLat="0.00" departSpeed="0.00" departDelay="0.00" arrival="105.50" arrivalLane="-E2_0" arrivalPos="86.40" arrivalPosLat="0.00" arrivalSpeed="12.24" duration="45.40" routeLength="176.73" waitingTime="13.60" waitingCount="1" stopTime="0.00" timeLoss="31.03" rerouteNo="0" devices="tripinfo_flow10.0" vType="type1" speedFactor="0.94" vaporized=""/>
    <tripinfo id="flow16.0" depart="26.90" departLane="-E6_0" departPos="5.10" departPosLat="0.00" departSpeed="0.00" departDelay="0.00" arrival="105.70" arrivalLane="E5_0" arrivalPos="86.40" arrivalPosLat="0.00" arrivalSpeed="11.98" duration="78.80" routeLength="176.73" waitingTime="46.70" waitingCount="1" stopTime="0.00" timeLoss="63.61" rerouteNo="0" devices="tripinfo_flow16.0" vType="type1" speedFactor="0.89" vaporized=""/>
    <tripinfo id="flow16.1" depart="53.90" departLane="-E6_0" departPos="5.10" departPosLat="0.00" departSpeed="0.00" departDelay="0.00" arrival="107.00" arrivalLane="E5_0" arrivalPos="86.40" arrivalPosLat="0.00" arrivalSpeed="12.47" duration="53.10" routeLength="176.73" waitingTime="15.10" waitingCount="1" stopTime="0.00" timeLoss="38.76" rerouteNo="0" devices="tripinfo_flow16.1" vType="type1" speedFactor="0.94" vaporized=""/>
    <tripinfo id="flow15.0" depart="31.30" departLane="-E6_0" departPos="5.10" departPosLat="0.00" departSpeed="0.00" departDelay="1.10" arrival="107.30" arrivalLane="-E4_1" arrivalPos="86.40" arrivalPosLat="0.00" arrivalSpeed="13.02" duration="76.00" routeLength="194.90" waitingTime="42.40" waitingCount="1" stopTime="0.00" timeLoss="60.99" rerouteNo="0" devices="tripinfo_flow15.0" vType="type1" speedFactor="0.94" vaporized=""/>
    <tripinfo id="flow15.1" depart="38.80" departLane="-E6_0" departPos="5.10" departPosLat="0.00" departSpeed="0.00" departDelay="1.90" arrival="108.60" arrivalLane="-E4_1" arrivalPos="86.40" arrivalPosLat="0.00" arrivalSpeed="13.47" duration="69.80" routeLength="194.90" waitingTime="30.10" waitingCount="1" stopTime="0.00" timeLoss="55.74" rerouteNo="0" devices="tripinfo_flow15.1" vType="type1" speedFactor="1.03" vaporized=""/>
    <tripinfo id="flow5.1" depart="85.10" departLane="E1_0" departPos="5.10" departPosLat="0.00" departSpeed="0.00" departDelay="0.00" arrival="109.30" arrivalLane="E0_1" arrivalPos="86.40" arrivalPosLat="0.00" arrivalSpeed="12.08" duration="24.20" routeLength="194.90" waitingTime="0.00" waitingCount="0" stopTime="0.00" timeLoss="8.03" rerouteNo="0" devices="tripinfo_flow5.1" vType="type1" speedFactor="0.87" vaporized=""/>
    <tripinfo id="flow6.0" depart="100.50" departLane="E1_0" departPos="5.10" departPosLat="0.00" departSpeed="0.00" departDelay="0.00" arrival="143.10" arrivalLane="-E2_2" arrivalPos="86.40" arrivalPosLat="0.00" arrivalSpeed="12.76" duration="42.60" routeLength="192.21" waitingTime="9.30" waitingCount="1" stopTime="0.00" timeLoss="28.51" rerouteNo="0" devices="tripinfo_flow6.0" vType="type1" speedFactor="1.18" vaporized=""/>
    <tripinfo id="flow9.0" depart="94.40" departLane="E1_0" departPos="5.10" departPosLat="0.00" departSpeed="0.00" departDelay="0.00" arrival="150.80" arrivalLane="E6_0" arrivalPos="86.40" arrivalPosLat="0.00" arrivalSpeed="12.04" duration="56.40" routeLength="258.56" waitingTime="13.90" waitingCount="1" stopTime="0.00" timeLoss="34.78" rerouteNo="0" devices="tripinfo_flow9.0" vType="type1" speedFactor="0.93" vaporized=""/>
    <tripinfo id="flow8.0" depart="62.60" departLane="E1_0" departPos="5.10" departPosLat="0.00" departSpeed="0.00" departDelay="0.00" arrival="152.00" arrivalLane="E5_1" arrivalPos="86.40" arrivalPosLat="0.00" arrivalSpeed="13.22" duration="89.40" routeLength="276.73" waitingTime="40.30" waitingCount="2" stopTime="0.00" timeLoss="68.88" rerouteNo="0" devices="tripinfo_flow8.0" vType="type1" speedFactor="1.16" vaporized=""/>
    <tripinfo id="flow29.0" depart="51.00" departLane="E4_0" departPos="5.10" departPosLat="0.00" departSpeed="0.00" departDelay="0.00" arrival="152.40" arrivalLane="-E2_1" arrivalPos="86.40" arrivalPosLat="0.00" arrivalSpeed="12.83" duration="101.40" routeLength="276.73" waitingTime="51.30" waitingCount="2" stopTime="0.00" timeLoss="79.08" rerouteNo="0" devices="tripinfo_flow29.0" vType="type1" speedFactor="0.93" vaporized=""/>
    <tripinfo id="flow29.1" depart="77.00" departLane="E4_0" departPos="5.10" departPosLat="0.00" departSpeed="0.00" departDelay="0.00" arrival="152.40" arrivalLane="-E2_0" arrivalPos="86.40" arrivalPosLat="-0.00" arrivalSpeed="13.00" duration="75.40" routeLength="276.73" waitingTime="25.50" waitingCount="1" stopTime="0.00" timeLoss="54.15" rerouteNo="0" devices="tripinfo_flow29.1" vType="type1" speedFactor="0.97" vaporized=""/>
    <tripinfo id="flow14.0" depart="50.80" departLane="-E0_0" departPos="5.10" departPosLat="0.00" departSpeed="0.00" departDelay="0.00" arrival="153.80" arrivalLane="E6_0" arrivalPos="86.40" arrivalPosLat="-0.00" arrivalSpeed="13.24" duration="103.00" routeLength="274.04" waitingTime="58.80" waitingCount="1" stopTime="0.00" timeLoss="81.73" rerouteNo="0" devices="tripinfo_flow14.0" vType="type1" speedFactor="0.99" vaporized=""/>
    <tripinfo id="flow19.1" depart="21.80" departLane="-E6_0" departPos="5.10" departPosLat="0.00" departSpeed="0.00" departDelay="0.00" arrival="154.00" arrivalLane="-E2_1" arrivalPos="86.40" arrivalPosLat="0.00" arrivalSpeed="13.86" duration="132.20" routeLength="292.21" waitingTime="81.80" waitingCount="1" stopTime="0.00" timeLoss="110.63" rerouteNo="0" devices="tripinfo_flow19.1" vType="type1" speedFactor="1.03" vaporized=""/>
    <tripinfo id="flow24.0" depart="123.60" departLane="-E5_0" departPos="5.10" departPosLat="0.00" departSpeed="0.00" departDelay="0.00" arrival="155.20" arrivalLane="-E2_0" arrivalPos="86.40" arrivalPosLat="0.00" arrivalSpeed="13.88" duration="31.60" routeLength="294.90" waitingTime="0.00" waitingCount="0" stopTime="0.00" timeLoss="10.35" rerouteNo="0" devices="tripinfo_flow24.0" vType="type1" speedFactor="1.01" vaporized=""/>
    <tripinfo id="flow14.1" depart="85.80" departLane="-E0_0" departPos="5.10" departPosLat="0.00" departSpeed="0.00" departDelay="0.00" arrival="156.90" arrivalLane="E6_0" arrivalPos="86.40" arrivalPosLat="-0.00" arrivalSpeed="12.70" duration="71.10" routeLength="274.04" waitingTime="19.20" waitingCount="1" stopTime="0.00" timeLoss="48.15" rerouteNo="0" devices="tripinfo_flow14.1" vType="type1" speedFactor="0.92" vaporized=""/>
    <tripinfo id="flow4.2" depart="74.10" departLane="E2_0" departPos="5.10" departPosLat="0.00" departSpeed="0.00" departDelay="0.00" arrival="162.30" arrivalLane="E6_0" arrivalPos="86.40" arrivalPosLat="0.00" arrivalSpeed="13.15" duration="88.20" routeLength="276.73" waitingTime="44.70" waitingCount="1" stopTime="0.00" timeLoss="67.53" rerouteNo="0" devices="tripinfo_flow4.2" vType="type1" speedFactor="1.01" vaporized=""/>
    <tripinfo id="flow4.3" depart="89.30" departLane="E2_0" departPos="5.10" departPosLat="0.00" departSpeed="0.00" departDelay="0.00" arrival="164.80" arrivalLane="E6_0" arrivalPos="86.40" arrivalPosLat="0.00" arrivalSpeed="13.08" duration="75.50" routeLength="276.73" waitingTime="24.70" waitingCount="1" stopTime="0.00" timeLoss="53.72" rerouteNo="0" devices="tripinfo_flow4.3" vType="type1" speedFactor="0.95" vaporized=""/>
    <tripinfo id="flow4.4" depart="144.30" departLane="E2_0" departPos="5.10" departPosLat="0.00" departSpeed="0.00" departDelay="0.00" arrival="177.80" arrivalLane="E6_0" arrivalPos="86.40" arrivalPosLat="0.00" arrivalSpeed="13.44" duration="33.50" routeLength="276.73" waitingTime="0.00" waitingCount="0" stopTime="0.00" timeLoss="12.92" rerouteNo="0" devices="tripinfo_flow4.4" vType="type1" speedFactor="1.10" vaporized=""/>
    <tripinfo id="flow28.0" depart="55.30" departLane="E4_0" departPos="5.10" departPosLat="0.00" departSpeed="0.00" departDelay="3.70" arrival="188.00" arrivalLane="-E1_2" arrivalPos="86.40" arrivalPosLat="0.00" arrivalSpeed="12.16" duration="132.70" routeLength="274.04" waitingTime="77.60" waitingCount="2" stopTime="0.00" timeLoss="108.69" rerouteNo="0" devices="tripinfo_flow28.0" vType="type1" speedFactor="0.88" vaporized=""/>
    <tripinfo id="flow20.1" depart="77.30" departLane="-E5_0" departPos="5.10" departPosLat="0.00" departSpeed="0.00" departDelay="0.00" arrival="188.00" arrivalLane="E6_2" arrivalPos="86.40" arrivalPosLat="0.00" arrivalSpeed="12.35" duration="110.70" routeLength="192.21" waitingTime="77.30" waitingCount="1" stopTime="0.00" timeLoss="94.43" rerouteNo="0" devices="tripinfo_flow20.1" vType="type1" speedFactor="0.89" vaporized=""/>
    <tripinfo id="flow1.0" depart="128.90" departLane="E2_0" departPos="5.10" departPosLat="0.00" departSpeed="0.00" departDelay="0.00" arrival="188.00" arrivalLane="E0_2" arrivalPos="86.40" arrivalPosLat="0.00" arrivalSpeed="13.10" duration="59.10" routeLength="192.21" waitingTime="25.70" waitingCount="1" stopTime="0.00" timeLoss="44.55" rerouteNo="0" devices="tripinfo_flow1.0" vType="type1" speedFactor="0.99" vaporized=""/>
    <tripinfo id="flow2.0" depart="118.80" departLane="E2_0" departPos="5.10" departPosLat="0.00" departSpeed="0.00" departDelay="0.00" arrival="188.20" arrivalLane="-E4_2" arrivalPos="86.40" arrivalPosLat="0.00" arrivalSpeed="12.86" duration="69.40" routeLength="292.21" waitingTime="17.80" waitingCount="2" stopTime="0.00" timeLoss="48.00" rerouteNo="0" devices="tripinfo_flow2.0" vType="type1" speedFactor="1.15" vaporized=""/>
    <tripinfo id="flow18.0" depart="35.70" departLane="-E6_0" departPos="5.10" departPosLat="0.00" departSpeed="0.00" departDelay="2.90" arrival="189.40" arrivalLane="-E1_2" arrivalPos="86.40" arrivalPosLat="0.00" arrivalSpeed="11.89" duration="153.70" routeLength="289.52" waitingTime="89.90" waitingCount="2" stopTime="0.00" timeLoss="127.92" rerouteNo="0" devices="tripinfo_flow18.0" vType="type1" speedFactor="0.86" vaporized=""/>
    <tripinfo id="flow16.2" depart="158.80" departLane="-E6_0" departPos="5.10" departPosLat="0.00" departSpeed="0.00" departDelay="0.00" arrival="196.90" arrivalLane="E5_0" arrivalPos="86.40" arrivalPosLat="0.00" arrivalSpeed="12.53" duration="38.10" routeLength="176.73" waitingTime="0.00" waitingCount="0" stopTime="0.00" timeLoss="24.74" rerouteNo="0" devices="tripinfo_flow16.2" vType="type1" speedFactor="1.09" vaporized=""/>
    <tripinfo id="flow15.2" depart="137.00" departLane="-E6_0" departPos="5.10" departPosLat="0.00" departSpeed="0.00" departDelay="0.00" arrival="197.00" arrivalLane="-E4_0" arrivalPos="86.40" arrivalPosLat="0.00" arrivalSpeed="13.08" duration="60.00" routeLength="194.90" waitingTime="26.70" waitingCount="1" stopTime="0.00" timeLoss="45.58" rerouteNo="0" devices="tripinfo_flow15.2" vType="type1" speedFactor="0.97" vaporized=""/>
    <tripinfo id="flow26.0" depart="129.50" departLane="E4_0" departPos="5.10" departPosLat="0.00" departSpeed="0.00" departDelay="0.00" arrival="197.10" arrivalLane="E6_0" arrivalPos="86.40" arrivalPosLat="0.00" arrivalSpeed="13.28" duration="67.60" routeLength="194.90" waitingTime="34.20" waitingCount="1" stopTime="0.00" timeLoss="53.49" rerouteNo="0" devices="tripinfo_flow26.0" vType="type1" speedFactor="1.02" vaporized=""/>
    <tripinfo id="flow15.3" depart="143.10" departLane="-E6_0" departPos="5.10" departPosLat="0.00" departSpeed="0.00" departDelay="0.00" arrival="197.10" arrivalLane="-E4_1" arrivalPos="86.40" arrivalPosLat="0.00" arrivalSpeed="13.12" duration="54.00" routeLength="194.90" waitingTime="20.60" waitingCount="1" stopTime="0.00" timeLoss="39.91" rerouteNo="0" devices="tripinfo_flow15.3" vType="type1" speedFactor="1.18" vaporized=""/>
    <tripinfo id="flow25.0" depart="201.80" departLane="E4_0" departPos="5.10" departPosLat="0.00" departSpeed="0.00" departDelay="0.00" arrival="227.80" arrivalLane="E5_2" arrivalPos="86.40" arrivalPosLat="0.00" arrivalSpeed="11.85" duration="26.00" routeLength="192.21" waitingTime="0.00" waitingCount="0" stopTime="0.00" timeLoss="9.06" rerouteNo="0" devices="tripinfo_flow25.0" vType="type1" speedFactor="0.85" vaporized=""/>
    <tripinfo id="flow6.1" depart="178.10" departLane="E1_0" departPos="5.10" departPosLat="0.00" departSpeed="0.00" departDelay="0.00" arrival="233.10" arrivalLane="-E2_2" arrivalPos="86.40" arrivalPosLat="0.00" arrivalSpeed="12.97" duration="55.00" routeLength="192.21" waitingTime="21.40" waitingCount="1" stopTime="0.00" timeLoss="40.73" rerouteNo="0" devices="tripinfo_flow6.1" vType="type1" speedFactor="1.09" vaporized=""/>
    <tripinfo id="flow6.2" depart="186.10" departLane="E1_0" departPos="5.10" departPosLat="0.00" departSpeed="0.00" departDelay="1.30" arrival="234.50" arrivalLane="-E2_2" arrivalPos="86.40" arrivalPosLat="0.00" arrivalSpeed="12.16" duration="48.40" routeLength="192.21" waitingTime="8.90" waitingCount="1" stopTime="0.00" timeLoss="31.85" rerouteNo="0" devices="tripinfo_flow6.2" vType="type1" speedFactor="0.88" vaporized=""/>
    <tripinfo id="flow21.1" depart="156.90" departLane="-E5_0" departPos="5.10" departPosLat="0.00" departSpeed="0.00" departDelay="0.00" arrival="240.70" arrivalLane="-E4_0" arrivalPos="86.40" arrivalPosLat="0.00" arrivalSpeed="11.94" duration="83.80" routeLength="176.73" waitingTime="51.90" waitingCount="1" stopTime="0.00" timeLoss="69.71" rerouteNo="0" devices="tripinfo_flow21.1" vType="type1" speedFactor="0.96" vaporized=""/>
    <tripinfo id="flow29.2" depart="149.80" departLane="E4_0" departPos="5.10" departPosLat="0.00" departSpeed="0.00" departDelay="0.00" arrival="242.00" arrivalLane="-E2_1" arrivalPos="86.40" arrivalPosLat="0.00" arrivalSpeed="13.09" duration="92.20" routeLength="276.73" waitingTime="36.60" waitingCount="2" stopTime="0.00" timeLoss="71.59" rerouteNo="0" devices="tripinfo_flow29.2" vType="type1" speedFactor="1.03" vaporized=""/>
    <tripinfo id="flow8.1" depart="144.60" departLane="E1_0" departPos="5.10" departPosLat="0.00" departSpeed="0.00" departDelay="0.00" arrival="242.10" arrivalLane="E5_1" arrivalPos="86.40" arrivalPosLat="0.00" arrivalSpeed="12.49" duration="97.50" routeLength="276.73" waitingTime="47.70" waitingCount="2" stopTime="0.00" timeLoss="74.53" rerouteNo="0" devices="tripinfo_flow8.1" vType="type1" speedFactor="0.90" vaporized=""/>
    <tripinfo id="flow8.2" depart="181.80" departLane="E1_0" departPos="5.10" departPosLat="0.00" departSpeed="0.00" departDelay="0.10" arrival="242.10" arrivalLane="E5_0" arrivalPos="86.40" arrivalPosLat="-0.00" arrivalSpeed="12.50" duration="60.30" routeLength="276.73" waitingTime="16.40" waitingCount="1" stopTime="0.00" timeLoss="37.32" rerouteNo="0" devices="tripinfo_flow8.2" vType="type1" speedFactor="0.90" vaporized=""/>
    <tripinfo id="flow14.2" depart="91.00" departLane="-E0_0" departPos="5.10" departPosLat="0.00" departSpeed="0.00" departDelay="0.00" arrival="242.80" arrivalLane="E6_0" arrivalPos="86.40" arrivalPosLat="-0.00" arrivalSpeed="13.62" duration="151.80" routeLength="274.04" waitingTime="96.90" waitingCount="2" stopTime="0.00" timeLoss="131.15" rerouteNo="0" devices="tripinfo_flow14.2" vType="type1" speedFactor="1.13" vaporized=""/>
    <tripinfo id="flow19.2" depart="125.10" departLane="-E6_0" departPos="5.10" departPosLat="0.00" departSpeed="0.00" departDelay="0.00" arrival="243.90" arrivalLane="-E2_1" arrivalPos="86.40" arrivalPosLat="0.00" arrivalSpeed="13.88" duration="118.80" routeLength="292.21" waitingTime="69.90" waitingCount="1" stopTime="0.00" timeLoss="97.50" rerouteNo="0" devices="tripinfo_flow19.2" vType="type1" speedFactor="1.17" vaporized=""/>
    <tripinfo id="flow14.3" depart="205.40" departLane="-E0_0" departPos="5.10" departPosLat="0.00" departSpeed="0.00" departDelay="0.00" arrival="245.20" arrivalLane="E6_0" arrivalPos="86.40" arrivalPosLat="-0.00" arrivalSpeed="13.57" duration="39.80" routeLength="274.04" waitingTime="0.00" waitingCount="0" stopTime="0.00" timeLoss="19.26" rerouteNo="0" devices="tripinfo_flow14.3" vType="type1" speedFactor="1.17" vaporized=""/>
    <tripinfo id="flow0.1" depart="222.00" departLane="E2_0" departPos="5.10" departPosLat="0.00" departSpeed="0.00" departDelay="0.00" arrival="247.30" arrivalLane="-E1_0" arrivalPos="86.40" arrivalPosLat="0.00" arrivalSpeed="13.07" duration="25.30" routeLength="176.73" waitingTime="0.00" waitingCount="0" stopTime="0.00" timeLoss="11.88" rerouteNo="0" devices="tripinfo_flow0.1" vType="type1" speedFactor="1.00" vaporized=""/>
    <tripinfo id="flow3.1" depart="181.10" departLane="E2_0" departPos="5.10" departPosLat="0.00" departSpeed="0.00" departDelay="0.00" arrival="249.50" arrivalLane="E5_0" arrivalPos="86.40" arrivalPosLat="-0.00" arrivalSpeed="13.83" duration="68.40" routeLength="294.90" waitingTime="27.70" waitingCount="1" stopTime="0.00" timeLoss="47.03" rerouteNo="0" devices="tripinfo_flow3.1" vType="type1" speedFactor="1.00" vaporized=""/>
    <tripinfo id="flow3.2" depart="227.90" departLane="E2_0" departPos="5.10" departPosLat="0.00" departSpeed="0.00" departDelay="0.00" arrival="259.80" arrivalLane="E5_1" arrivalPos="86.40" arrivalPosLat="0.00" arrivalSpeed="12.44" duration="31.90" routeLength="294.90" waitingTime="0.00" waitingCount="0" stopTime="0.00" timeLoss="8.20" rerouteNo="0" devices="tripinfo_flow3.2" vType="type1" speedFactor="0.90" vaporized=""/>
    <tripinfo id="flow22.0" depart="232.20" departLane="-E5_0" departPos="5.10" departPosLat="0.00" departSpeed="0.00" departDelay="0.00" arrival="265.80" arrivalLane="E0_0" arrivalPos="86.40" arrivalPosLat="0.00" arrivalSpeed="13.24" duration="33.60" routeLength="276.73" waitingTime="0.00" waitingCount="0" stopTime="0.00" timeLoss="13.01" rerouteNo="0" devices="tripinfo_flow22.0" vType="type1" speedFactor="1.08" vaporized=""/>
    <tripinfo id="flow18.1" depart="63.10" departLane="-E6_0" departPos="5.10" departPosLat="0.00" departSpeed="0.00" departDelay="0.00" arrival="278.00" arrivalLane="-E1_2" arrivalPos="86.40" arrivalPosLat="0.00" arrivalSpeed="12.85" duration="214.90" routeLength="289.52" waitingTime="152.70" waitingCount="3" stopTime="0.00" timeLoss="192.91" rerouteNo="0" devices="tripinfo_flow18.1" vType="type1" speedFactor="1.02" vaporized=""/>
    <tripinfo id="flow1.1" depart="212.20" departLane="E2_0" departPos="5.10" departPosLat="0.00" departSpeed="0.00" departDelay="0.00" arrival="278.00" arrivalLane="E0_2" arrivalPos="86.40" arrivalPosLat="0.00" arrivalSpeed="12.97" duration="65.80" routeLength="192.21" waitingTime="32.50" waitingCount="1" stopTime="0.00" timeLoss="51.48" rerouteNo="0" devices="tripinfo_flow1.1" vType="type1" speedFactor="1.10" vaporized=""/>
    <tripinfo id="flow2.1" depart="232.30" departLane="E2_0" departPos="5.10" departPosLat="0.00" departSpeed="0.00" departDelay="0.50" arrival="278.00" arrivalLane="-E4_2" arrivalPos="86.40" arrivalPosLat="0.00" arrivalSpeed="12.97" duration="45.70" routeLength="292.21" waitingTime="3.60" waitingCount="1" stopTime="0.00" timeLoss="23.39" rerouteNo="0" devices="tripinfo_flow2.1" vType="type1" speedFactor="0.97" vaporized=""/>
    <tripinfo id="flow23.0" depart="166.60" departLane="-E5_0" departPos="5.10" departPosLat="0.00" departSpeed="0.00" departDelay="0.00" arrival="279.30" arrivalLane="-E1_2" arrivalPos="86.40" arrivalPosLat="0.00" arrivalSpeed="13.29" duration="112.70" routeLength="292.21" waitingTime="55.10" waitingCount="2" stopTime="0.00" timeLoss="91.10" rerouteNo="0" devices="tripinfo_flow23.0" vType="type1" speedFactor="1.04" vaporized=""/>
    <tripinfo id="flow16.3" depart="245.40" departLane="-E6_0" departPos="5.10" departPosLat="0.00" departSpeed="0.00" departDelay="0.00" arrival="285.70" arrivalLane="E5_0" arrivalPos="86.40" arrivalPosLat="0.00" arrivalSpeed="11.97" duration="40.30" routeLength="176.73" waitingTime="8.20" waitingCount="1" stopTime="0.00" timeLoss="26.97" rerouteNo="0" devices="tripinfo_flow16.3" vType="type1" speedFactor="1.12" vaporized=""/>
    <tripinfo id="flow10.1" depart="269.00" departLane="-E0_0" departPos="5.10" departPosLat="0.00" departSpeed="0.00" departDelay="0.00" arrival="295.20" arrivalLane="-E2_0" arrivalPos="86.40" arrivalPosLat="0.00" arrivalSpeed="12.66" duration="26.20" routeLength="176.73" waitingTime="0.00" waitingCount="0" stopTime="0.00" timeLoss="11.47" rerouteNo="0" devices="tripinfo_flow10.1" vType="type1" speedFactor="0.91" vaporized=""/>
    <tripinfo id="flow11.0" depart="287.00" departLane="-E0_0" departPos="5.10" departPosLat="0.00" departSpeed="0.00" departDelay="0.00" arrival="310.40" arrivalLane="-E1_0" arrivalPos="86.40" arrivalPosLat="0.00" arrivalSpeed="13.04" duration="23.40" routeLength="194.90" waitingTime="0.00" waitingCount="0" stopTime="0.00" timeLoss="8.44" rerouteNo="0" devices="tripinfo_flow11.0" vType="type1" speedFactor="0.94" vaporized=""/>
    <tripinfo id="flow6.3" depart="263.70" departLane="E1_0" departPos="5.10" departPosLat="0.00" departSpeed="0.00" departDelay="0.00" arrival="322.90" arrivalLane="-E2_2" arrivalPos="86.40" arrivalPosLat="0.00" arrivalSpeed="12.56" duration="59.20" routeLength="192.21" waitingTime="25.90" waitingCount="1" stopTime="0.00" timeLoss="43.23" rerouteNo="0" devices="tripinfo_flow6.3" vType="type1" speedFactor="0.91" vaporized=""/>
    <tripinfo id="flow6.4" depart="273.90" departLane="E1_0" departPos="5.10" departPosLat="0.00" departSpeed="0.00" departDelay="0.00" arrival="324.20" arrivalLane="-E2_2" arrivalPos="86.40" arrivalPosLat="0.00" arrivalSpeed="13.31" duration="50.30" routeLength="192.21" waitingTime="11.20" waitingCount="1" stopTime="0.00" timeLoss="35.46" rerouteNo="0" devices="tripinfo_flow6.4" vType="type1" speedFactor="0.97" vaporized=""/>
    <tripinfo id="flow13.1" depart="231.70" departLane="-E0_0" departPos="5.10" departPosLat="0.00" departSpeed="0.00" departDelay="0.00" arrival="330.00" arrivalLane="E5_1" arrivalPos="86.40" arrivalPosLat="0.00" arrivalSpeed="13.85" duration="98.30" routeLength="292.21" waitingTime="58.20" waitingCount="1" stopTime="0.00" timeLoss="76.66" rerouteNo="0" devices="tripinfo_flow13.1" vType="type1" speedFactor="1.02" vaporized=""/>
    <tripinfo id="flow27.0" depart="224.60" departLane="E4_0" departPos="5.10" departPosLat="0.00" departSpeed="0.00" departDelay="0.00" arrival="330.70" arrivalLane="E0_0" arrivalPos="86.40" arrivalPosLat="0.00" arrivalSpeed="11.89" duration="106.10" routeLength="258.56" waitingTime="58.10" waitingCount="2" stopTime="0.00" timeLoss="85.97" rerouteNo="0" devices="tripinfo_flow27.0" vType="type1" speedFactor="1.00" vaporized=""/>
    <tripinfo id="flow13.2" depart="273.40" departLane="-E0_0" departPos="5.10" departPosLat="0.00" departSpeed="0.00" departDelay="3.40" arrival="331.40" arrivalLane="E5_1" arrivalPos="86.40" arrivalPosLat="0.00" arrivalSpeed="13.84" duration="58.00" routeLength="292.21" waitingTime="11.50" waitingCount="1" stopTime="0.00" timeLoss="36.37" rerouteNo="0" devices="tripinfo_flow13.2" vType="type1" speedFactor="1.04" vaporized=""/>
    <tripinfo id="flow29.3" depart="255.20" departLane="E4_0" departPos="5.10" departPosLat="0.00" departSpeed="0.00" departDelay="0.00" arrival="332.30" arrivalLane="-E2_1" arrivalPos="86.40" arrivalPosLat="0.00" arrivalSpeed="13.06" duration="77.10" routeLength="276.73" waitingTime="27.50" waitingCount="1" stopTime="0.00" timeLoss="56.12" rerouteNo="0" devices="tripinfo_flow29.3" vType="type1" speedFactor="0.99" vaporized=""/>
    <tripinfo id="flow19.3" depart="168.20" departLane="-E6_0" departPos="5.10" departPosLat="0.00" departSpeed="0.00" departDelay="0.00" arrival="334.00" arrivalLane="-E2_1" arrivalPos="86.40" arrivalPosLat="0.00" arrivalSpeed="13.87" duration="165.80" routeLength="292.21" waitingTime="109.80" waitingCount="2" stopTime="0.00" timeLoss="144.18" rerouteNo="0" devices="tripinfo_flow19.3" vType="type1" speedFactor="1.04" vaporized=""/>
    <tripinfo id="flow17.1" depart="193.00" departLane="-E6_0" departPos="5.10" departPosLat="0.00" departSpeed="0.00" departDelay="0.00" arrival="336.80" arrivalLane="E0_0" arrivalPos="86.40" arrivalPosLat="-0.00" arrivalSpeed="11.77" duration="143.80" routeLength="274.04" waitingTime="86.00" waitingCount="2" stopTime="0.00" timeLoss="118.97" rerouteNo="0" devices="tripinfo_flow17.1" vType="type1" speedFactor="0.85" vaporized=""/>
    <tripinfo id="flow24.1" depart="258.00" departLane="-E5_0" departPos="5.10" departPosLat="0.00" departSpeed="0.00" departDelay="0.00" arrival="340.10" arrivalLane="-E2_1" arrivalPos="86.40" arrivalPosLat="0.00" arrivalSpeed="13.00" duration="82.10" routeLength="294.90" waitingTime="40.80" waitingCount="1" stopTime="0.00" timeLoss="59.39" rerouteNo="0" devices="tripinfo_flow24.1" vType="type1" speedFactor="0.94" vaporized=""/>