<?xml version="1.0" encoding="UTF-8"?>

<!-- generated on 2024-07-22 07:07:50 by Eclipse SUMO sumo Version 1.20.0
<configuration xmlns:xsi="http://www.w3.org/2001/XMLSchema-instance" xsi:noNamespaceSchemaLocation="http://sumo.dlr.de/xsd/sumoConfiguration.xsd">

    <input>
        <net-file value="sumo_rl/nets/two_intersections/two_intersections.net.xml"/>
    </input>

    <output>
        <tripinfo-output value="outputs/two_intersections/tripinfo.xml"/>
    </output>

    <traci_server>
        <remote-port value="37927"/>
    </traci_server>

</configuration>
-->

<tripinfos xmlns:xsi="http://www.w3.org/2001/XMLSchema-instance" xsi:noNamespaceSchemaLocation="http://sumo.dlr.de/xsd/tripinfo_file.xsd">
</tripinfos>
